ITEM: TIMESTEP
0
ITEM: NUMBER OF ATOMS
10000
ITEM: BOX BOUNDS xy xz yz pp pp pp
-2.9045700000000000e+01 2.9045700000000000e+01 0.0000000000000000e+00
-2.9045700000000000e+01 2.9045700000000000e+01 0.0000000000000000e+00
-2.9045700000000000e+01 2.9045700000000000e+01 0.0000000000000000e+00
ITEM: ATOMS id type x y z ix iy iz c_1[1] c_1[2]
7457 2 -27.9749 -28.6699 -28.9594 0 0 0 38.8266 11
3350 1 -7.51751 -28.9002 -28.7415 0 0 0 23.4103 10
3936 1 -2.28695 -28.7915 -28.576 0 0 0 27.6985 11
7333 2 -20.1893 -27.0889 -29.0194 0 0 1 15.1566 13
6073 2 -25.2525 -24.8467 -28.5382 0 0 0 14.1595 15
9280 2 -6.72208 -25.2324 -28.2377 0 0 0 16.8342 13
9305 2 -22.333 -24.6071 -28.6862 0 0 0 4.24461 11
9326 2 -10.5916 -24.6643 -28.2999 0 0 0 13.5811 11
2826 1 -12.5714 -23.2578 -28.9536 0 0 0 13.6866 14
9953 2 -25.8654 -22.9922 -28.7173 0 0 0 18.3812 12
7131 2 -9.61045 -22.9804 -28.7267 0 0 0 22.6936 17
2437 1 -28.8331 -21.7781 -28.8231 0 0 0 16.6956 9
3419 1 -26.8641 -21.749 -28.4822 0 0 0 10.1396 12
1044 1 -16.0894 -21.8199 -28.6685 0 0 0 12.3309 12
8685 2 -14.3328 -20.7257 -28.7722 0 0 0 17.0378 15
6826 2 -1.3417 -19.6526 -28.7691 0 0 0 9.24391 9
9501 2 -2.4455 -18.4011 -28.3908 0 0 0 9.94089 12
1312 1 -3.59906 -17.492 -28.3609 0 0 0 28.4693 15
3120 1 -16.1757 -16.9563 -28.7489 0 0 0 25.5675 13
5801 2 -7.41729 -15.6002 -28.2885 0 0 0 35.3485 18
9163 2 -23.7895 -15.0672 -28.6819 0 0 0 25.2001 12
1404 1 -21.203 -14.9311 -28.5477 0 0 0 18.6616 13
5001 2 -6.85147 -13.6525 -28.9353 0 0 0 25.9056 12
2697 1 -27.0623 -12.7039 -28.195 0 0 0 32.6795 13
2171 1 -18.934 -12.2992 -28.6592 0 0 0 35.0574 13
2888 1 -11.4237 -11.9696 -28.9849 0 0 0 16.9728 13
2179 1 -1.63408 -12.2991 -28.5588 0 0 0 27.8811 18
1320 1 -11.5645 -10.9711 -29.0446 0 0 1 18.5442 12
8185 2 -1.41526 -10.1117 -28.7403 0 0 0 21.406 15
2143 1 -3.04251 -9.00706 -28.8135 0 0 0 39.5007 19
1433 1 -18.7014 -8.07867 -28.9901 0 0 0 33.6088 18
6223 2 -28.6211 -6.94166 -28.5637 0 0 0 15.4163 14
5018 2 -2.72592 -7.29105 -28.4287 0 0 0 15.3178 13
2020 1 -20.7671 -6.65476 -28.614 0 0 0 7.29242 10
3354 1 -3.86038 -3.38128 -28.2392 0 0 0 17.539 13
3951 1 -26.8965 -2.51053 -28.4387 0 0 0 30.7917 16
3191 1 -19.0443 -1.50478 -28.3653 0 0 0 19.0497 16
7664 2 -9.01937 -1.65608 -28.4622 0 0 0 14.7608 12
5453 2 -18.6082 -0.182307 -28.6653 0 0 0 10.4431 9
3621 1 -16.9741 -0.210693 -28.9593 0 0 0 27.739 13
7992 2 -9.81166 -0.582339 -28.8514 0 0 0 10.7856 14
7115 2 -7.89072 -28.9148 -27.5951 0 0 0 11.1187 10
7066 2 -19.8397 -28.0982 -27.9123 0 0 0 17.2294 16
8219 2 -7.11389 -27.6342 -27.5855 0 0 0 21.5258 17
1993 1 -21.2663 -26.924 -27.9167 0 0 0 10.5887 14
4080 1 -5.98744 -24.0363 -27.868 0 0 0 22.4272 17
1107 1 -28.258 -23.6219 -27.3587 0 0 0 46.6703 16
5958 2 -21.5463 -23.5813 -28.0373 0 0 0 9.35295 10
4266 1 -12.4563 -23.2345 -27.41 0 0 0 16.724 17
6603 2 -20.2272 -22.5931 -27.9508 0 0 0 23.6303 19
8407 2 -2.20106 -21.7653 -27.8137 0 0 0 15.8863 11
8935 2 -28.9599 -20.6974 -28.049 0 0 0 17.7464 9
6128 2 -19.9545 -21.0164 -28.1894 0 0 0 30.6701 14
9887 2 -18.55 -21.0893 -28.0803 0 0 0 20.8615 15
7875 2 -8.85241 -20.7068 -28.0292 0 0 0 21.7313 13
4199 1 -1.21505 -18.2945 -27.8254 0 0 0 17.5407 13
8952 2 -24.9352 -15.7544 -28.0984 0 0 0 33.8132 18
3996 1 -11.2006 -15.2062 -27.7422 0 0 0 16.976 14
6141 2 -22.7932 -14.3014 -28.0632 0 0 0 17.4492 16
3237 1 -7.06414 -13.0464 -27.4665 0 0 0 23.9968 14
1367 1 -24.4897 -10.4694 -27.4288 0 0 0 22.7227 15
3682 1 -17.2836 -11.0923 -27.7155 0 0 0 25.6111 15
7411 2 -22.2114 -7.69376 -27.7094 0 0 0 25.0667 23
8025 2 -15.3124 -8.333 -28.0283 0 0 0 23.6057 14
3849 1 -8.4955 -6.86204 -27.9365 0 0 0 42.7844 18
9804 2 -25.4014 -5.69143 -28.0442 0 0 0 17.4028 15
2417 1 -20.549 -5.84466 -27.9699 0 0 0 9.91151 13
7559 2 -19.1921 -5.50579 -27.3804 0 0 0 16.1866 15
7157 2 -13.5626 -5.39816 -27.638 0 0 0 20.0776 16
7109 2 -0.310861 -5.80338 -27.353 0 0 0 25.5703 15
2861 1 -28.7671 -4.68481 -28.0776 0 0 0 14.7357 15
6799 2 -12.7757 -3.82051 -27.8781 0 0 0 7.96183 8
3029 1 -11.5076 -3.49944 -28.1168 0 0 0 15.7022 15
5093 2 -13.7543 -2.81244 -27.5653 0 0 0 19.2049 19
3463 1 -15.8158 -2.38589 -27.9229 0 0 0 19.6698 16
9970 2 -10.4206 -1.7476 -27.6078 0 0 0 13.5469 14
8962 2 -5.38825 -2.24627 -27.7423 0 0 0 29.0719 18
5007 2 -23.0349 -0.399979 -28.1201 0 0 0 24.613 14
9525 2 -21.6862 -0.39359 -27.3477 0 0 0 12.9242 12
1488 1 -4.30314 -0.565934 -27.8289 0 0 0 12.4008 10
8999 2 -1.76844 -26.616 -27.1607 0 0 0 40.2344 17
4906 1 -12.1946 -25.9323 -27.0691 0 0 0 36.7042 24
5123 2 -22.1554 -24.9225 -27.1026 0 0 0 12.7474 17
4262 1 -15.8816 -24.6698 -26.7274 0 0 0 39.0356 24
3783 1 -8.32663 -24.6981 -26.99 0 0 0 11.7936 14
7544 2 -14.248 -22.6117 -26.5273 0 0 0 11.8057 12
1507 1 -3.23311 -22.7073 -27.2736 0 0 0 22.1198 11
3932 1 -6.8595 -21.5464 -27.0474 0 0 0 30.4402 20
3144 1 -22.1431 -21.3389 -26.7699 0 0 0 14.1399 14
9950 2 -17.0875 -20.5575 -27.187 0 0 0 10.7853 14
2102 1 -9.27898 -20.961 -26.5975 0 0 0 11.6888 11
2790 1 -0.876573 -20.844 -26.8254 0 0 0 23.463 13
2323 1 -22.6542 -19.457 -26.7671 0 0 0 23.7674 15
5915 2 -14.3076 -18.4579 -26.8353 0 0 0 18.7198 17
3069 1 -20.6337 -17.7833 -27.0359 0 0 0 23.5608 17
5036 2 -13.8062 -16.3877 -26.7062 0 0 0 17.7807 13
7497 2 -11.4629 -16.3537 -27.2377 0 0 0 25.0904 15
7617 2 -25.7821 -15.6533 -26.8958 0 0 0 20.6865 15
2230 1 -25.4398 -13.2021 -26.9868 0 0 0 12.9397 13
4230 1 -9.20357 -13.0305 -26.957 0 0 0 19.7039 17
8722 2 -19.118 -12.297 -26.6456 0 0 0 13.8872 17
9998 2 -17.5531 -12.1791 -26.9219 0 0 0 15.5577 12
5384 2 -26.7953 -10.5052 -27.0861 0 0 0 15.4388 12
5390 2 -20.788 -10.7414 -26.6208 0 0 0 19.858 14
5502 2 -11.6181 -10.4829 -26.8794 0 0 0 24.243 21
5412 2 -26.6164 -8.29786 -27.0698 0 0 0 20.4921 16
2982 1 -15.0266 -8.05831 -26.512 0 0 0 13.3877 16
257 1 -9.06461 -8.13614 -26.4946 0 0 0 19.5309 14
8596 2 -2.03369 -7.91745 -27.0432 0 0 0 12.2437 16
2401 1 -27.7705 -6.78909 -26.8844 0 0 0 13.2649 11
2652 1 -12.7435 -6.72404 -27.221 0 0 0 13.1564 13
7954 2 -11.469 -6.22346 -26.8692 0 0 0 15.5563 14
1096 1 -3.09845 -5.15677 -26.7498 0 0 0 12.662 15
4486 1 -1.20005 -5.71602 -26.5103 0 0 0 11.0027 13
8911 2 -24.5957 -4.94995 -26.9781 0 0 0 18.1336 16
350 1 -23.9029 -27.8543 -25.9626 0 0 0 25.7362 19
4878 1 -2.37585 -27.4461 -25.9807 0 0 0 35.8031 19
3150 1 -22.6383 -25.9325 -25.7564 0 0 0 8.48944 13
132 1 -21.3949 -26.0535 -25.9423 0 0 0 12.8376 14
3362 1 -25.7289 -24.5907 -26.143 0 0 0 35.7267 19
676 1 -8.19393 -23.5809 -26.2264 0 0 0 12.9025 13
6428 2 -4.93331 -23.4508 -26.0261 0 0 0 15.6494 9
2610 1 -23.4906 -21.5116 -26.4294 0 0 0 17.1802 17
8413 2 -18.5049 -21.2416 -26.3572 0 0 0 19.119 15
6346 2 -14.2527 -21.1628 -26.3283 0 0 0 10.4642 10
7530 2 -11.2584 -20.8013 -25.811 0 0 0 24.4043 20
1592 1 -26.9844 -19.9145 -26.1069 0 0 0 29.5658 17
6322 2 -16.2454 -20.2907 -25.6617 0 0 0 11.3218 15
3302 1 -18.9984 -19.2076 -25.6727 0 0 0 12.9131 16
7015 2 -16.9159 -18.8631 -26.3167 0 0 0 14.7136 14
4995 1 -7.72658 -19.3312 -25.6465 0 0 0 38.3758 17
6598 2 -20.8995 -18.6503 -25.6555 0 0 0 13.1408 15
1246 1 -19.2412 -17.1123 -26.0385 0 0 0 20.8645 20
1581 1 -14.757 -16.5588 -25.7129 0 0 0 18.9989 17
6708 2 -20.5543 -16.0781 -25.8664 0 0 0 8.67923 12
4793 1 -20.9482 -14.8348 -26.0397 0 0 0 10.9554 12
4153 1 -27.2699 -13.378 -25.7638 0 0 0 26.5046 16
8525 2 -25.5751 -12.1392 -25.8655 0 0 0 19.7323 14
1005 1 -17.8912 -12.5037 -25.8146 0 0 0 13.2442 14
9979 2 -1.19752 -11.9273 -25.8025 0 0 0 22.3202 15
6781 2 -8.80391 -9.95279 -26.2173 0 0 0 20.0172 17
8715 2 -14.9766 -6.8945 -25.9792 0 0 0 14.7135 12
2778 1 -4.98305 -6.54483 -26.1517 0 0 0 30.4396 19
3891 1 -3.46648 -6.09578 -25.6949 0 0 0 7.81643 12
4437 1 -20.1957 -5.3666 -26.044 0 0 0 10.3319 14
1737 1 -24.4668 -5.05487 -25.6982 0 0 0 8.26289 13
2821 1 -22.1413 -4.81838 -25.787 0 0 0 13.3385 14
668 1 -18.5378 -4.27417 -26.3116 0 0 0 11.2546 11
3185 1 -11.5033 -4.508 -25.7166 0 0 0 11.7104 14
2370 1 -10.0427 -4.45125 -26.4153 0 0 0 18.6013 14
5082 2 -16.8156 -3.77201 -26.0109 0 0 0 22.9585 19
790 1 -20.9811 -2.73582 -25.9292 0 0 0 17.5328 17
926 1 -1.27825 -2.2594 -26.2202 0 0 0 33.5435 22
8283 2 -28.397 -0.617804 -25.7057 0 0 0 14.7476 14
9019 2 -22.41 -0.55553 -26.0621 0 0 0 16.9558 15
8274 2 -10.1622 -0.169971 -26.1633 0 0 0 15.0181 13
3157 1 -4.81491 -0.81538 -26.0477 0 0 0 15.3565 15
9144 2 -21.7097 -28.8677 -25.4824 0 0 0 16.8345 15
1915 1 -19.9471 -28.9165 -25.1365 0 0 0 30.7908 15
5278 2 -14.1994 -28.906 -25.0069 0 0 0 30.4452 18
7983 2 -8.60966 -28.4697 -24.9694 0 0 0 20.2241 15
6486 2 -7.06096 -25.9003 -25.3513 0 0 0 12.4223 12
6964 2 -18.4458 -25.5152 -24.8811 0 0 0 41.48 19
4579 1 -8.22603 -25.5858 -25.3449 0 0 0 21.0546 15
3638 1 -6.37443 -24.0599 -25.1004 0 0 0 15.7043 15
6537 2 -13.8107 -22.5214 -25.1051 0 0 0 8.6027 12
6336 2 -9.25145 -21.7014 -25.1104 0 0 0 13.7625 13
1631 1 -22.4515 -20.0016 -24.9344 0 0 0 15.073 13
8472 2 -17.5931 -19.728 -25.2779 0 0 0 8.69934 9
114 1 -14.0055 -20.2605 -24.8314 0 0 0 10.1828 11
6453 2 -26.3189 -18.6144 -25.4362 0 0 0 24.258 16
6575 2 -24.2891 -18.1164 -25.3059 0 0 0 17.1791 17
7410 2 -2.34869 -17.4858 -25.3718 0 0 0 21.4285 15
939 1 -23.3007 -16.3012 -25.0107 0 0 0 8.69064 14
3405 1 -25.2276 -15.3783 -25.4588 0 0 0 10.3542 12
4535 1 -23.2598 -15.2657 -25.3859 0 0 0 9.05829 17
1762 1 -20.3009 -15.3168 -24.9647 0 0 0 9.26883 14
7828 2 -12.7041 -15.2179 -25.4942 0 0 0 23.985 18
8471 2 -3.2129 -14.6841 -25.6101 0 0 0 34.9357 19
5546 2 -22.2994 -13.2858 -25.2588 0 0 0 21.476 18
2879 1 -8.22699 -13.5633 -25.5778 0 0 0 17.2469 13
4509 1 -13.5319 -11.9854 -25.2768 0 0 0 19.6034 18
2214 1 -12.6116 -11.4742 -25.1401 0 0 0 10.8884 13
6650 2 -26.7092 -10.1032 -25.5642 0 0 0 32.4438 18
3674 1 -21.3122 -10.0473 -24.9538 0 0 0 20.7865 18
8648 2 -18.3801 -9.93926 -25.4694 0 0 0 20.6072 16
4588 1 -7.94171 -9.79636 -25.2236 0 0 0 18.2466 17
4375 1 -3.11851 -9.01832 -25.2423 0 0 0 27.6042 17
2063 1 -20.7071 -8.14534 -24.8963 0 0 0 18.8022 16
6356 2 -14.3767 -8.18247 -25.1585 0 0 0 16.132 16
7366 2 -2.1167 -8.11208 -25.3795 0 0 0 8.55103 10
6297 2 -22.1246 -6.20345 -24.8033 0 0 0 15.9835 13
5599 2 -19.0501 -6.40212 -25.3356 0 0 0 17.1326 17
3899 1 -25.3911 -5.47927 -25.3135 0 0 0 17.4624 17
4829 1 -23.2025 -5.30398 -24.9884 0 0 0 8.76149 10
6063 2 -7.31564 -5.46862 -24.9779 0 0 0 22.4082 14
9626 2 -18.0378 -3.40007 -25.3125 0 0 0 11.1237 10
9304 2 -3.15988 -3.18199 -24.9833 0 0 0 9.27243 13
20 1 -27.8825 -2.45716 -25.3804 0 0 0 18.7614 14
4269 1 -18.8166 -0.914121 -25.1441 0 0 0 18.1824 17
9376 2 -23.1928 -27.1107 -24.7221 0 0 0 6.85449 10
6641 2 -21.7546 -25.7639 -24.1912 0 0 0 20.652 19
2086 1 -5.70286 -25.6602 -24.5397 0 0 0 28.8223 21
4847 1 -23.9011 -25.3751 -24.2251 0 0 0 13.3836 13
5327 2 -14.4364 -23.3097 -24.0985 0 0 0 23.4068 18
1086 1 -4.35715 -23.4031 -24.1492 0 0 0 16.6156 14
5906 2 -24.3972 -23.0125 -24.5691 0 0 0 24.869 17
3351 1 -23.3928 -22.3815 -24.6652 0 0 0 18.0253 17
3425 1 -2.63197 -21.6304 -24.7525 0 0 0 26.8249 18
967 1 -13.8779 -17.8581 -24.1904 0 0 0 11.0127 16
1470 1 -12.7851 -17.8996 -24.2086 0 0 0 11.7271 12
3909 1 -3.42648 -16.737 -23.9476 0 0 0 8.30867 10
8642 2 -25.3834 -16.0662 -24.4067 0 0 0 18.3739 16
73 1 -9.94657 -15.6017 -24.7376 0 0 0 29.5515 16
7184 2 -4.13376 -15.708 -24.4476 0 0 0 16.5266 14
1202 1 -22.2776 -15.0691 -24.571 0 0 0 6.16671 11
846 1 -9.09146 -12.6321 -24.6655 0 0 0 18.0821 15
9930 2 -17.8884 -11.3518 -24.4395 0 0 0 16.6845 15
9002 2 -15.309 -11.776 -24.5709 0 0 0 21.3783 18
8746 2 -6.44576 -11.8964 -24.6224 0 0 0 26.0892 17
9544 2 -0.645189 -11.3856 -24.2076 0 0 0 11.1903 14
3631 1 -13.2547 -10.9131 -24.1643 0 0 0 4.96293 8
4034 1 -1.98627 -7.19533 -24.632 0 0 0 15.4783 16
7588 2 -8.77743 -6.00925 -24.2594 0 0 0 12.2909 15
626 1 -13.5017 -5.51353 -24.5182 0 0 0 22.3185 19
6349 2 -3.8095 -5.10203 -24.1692 0 0 0 13.6568 14
2371 1 -2.11928 -4.82885 -24.5355 0 0 0 8.54098 12
5653 2 -0.0173851 -4.61143 -24.2261 0 0 0 31.6307 13
1265 1 -12.663 -3.61193 -23.9314 0 0 0 18.9376 15
3859 1 -11.4117 -3.44445 -24.235 0 0 0 14.8866 17
1839 1 -8.62292 -3.13379 -24.1568 0 0 0 21.8044 18
4723 1 -28.844 -2.17044 -24.3266 0 0 0 13.453 14
3661 1 -21.6423 -1.9926 -24.7075 0 0 0 11.4612 15
4949 1 -4.11404 -2.50765 -24.7576 0 0 0 15.8726 18
4648 1 -25.5879 -1.16378 -24.5388 0 0 0 25.2792 18
2240 1 -17.9978 -0.722085 -24.2474 0 0 0 20.6473 17
7833 2 -7.86044 -0.35943 -24.4926 0 0 0 20.6037 15
5813 2 -24.2152 -27.9233 -23.8911 0 0 0 15.9154 13
1050 1 -12.1746 -27.9763 -23.1176 0 0 0 13.0711 13
3378 1 -23.5527 -26.5574 -23.2184 0 0 0 17.1967 12
1826 1 -10.8289 -23.6193 -23.5973 0 0 0 25.1058 18
6979 2 -12.4175 -22.6692 -23.8987 0 0 0 11.2489 13
1882 1 -19.4672 -20.9744 -23.4244 0 0 0 39.0943 27
2263 1 -14.4445 -20.7655 -23.1508 0 0 0 12.6812 15
8876 2 -12.5446 -20.9179 -23.4383 0 0 0 13.6864 16
6675 2 -9.48801 -21.092 -23.6088 0 0 0 14.0078 11
1980 1 -15.617 -20.329 -23.284 0 0 0 16.2411 16
5512 2 -16.4027 -18.9931 -23.3587 0 0 0 16.4894 16
4717 1 -2.05556 -19.5825 -23.8224 0 0 0 16.5118 14
8401 2 -5.45372 -18.4451 -23.9057 0 0 0 34.7861 22
5552 2 -1.8225 -18.1538 -23.78 0 0 0 7.49355 12
855 1 -11.8096 -17.3654 -23.5072 0 0 0 16.1272 15
2050 1 -0.585574 -17.1058 -23.3853 0 0 0 19.7458 11
5589 2 -23.6703 -16.8559 -23.7374 0 0 0 12.6341 16
5893 2 -15.8393 -16.5864 -23.5639 0 0 0 24.4317 19
4434 1 -19.7718 -14.7128 -23.8042 0 0 0 16.8301 17
1338 1 -22.1841 -14.3938 -23.4598 0 0 0 13.384 13
9704 2 -5.12894 -13.8913 -23.8786 0 0 0 21.6723 17
6489 2 -3.82516 -13.8015 -23.4052 0 0 0 15.0438 13
1599 1 -18.1699 -13.4228 -23.6544 0 0 0 15.4279 15
1625 1 -17.0007 -12.3874 -23.4649 0 0 0 14.3239 12
5764 2 -12.7977 -12.0216 -23.7281 0 0 0 16.5348 16
749 1 -13.6635 -10.5989 -23.149 0 0 0 15.8705 15
2690 1 -9.22883 -10.7788 -23.151 0 0 0 9.87944 13
116 1 -12.3011 -9.79167 -23.7502 0 0 0 10.3698 14
2871 1 -8.38698 -10.2323 -23.8111 0 0 0 10.1427 10
4823 1 -22.1813 -9.1168 -23.9032 0 0 0 31.1943 19
6295 2 -12.7706 -8.7101 -23.5893 0 0 0 11.7356 13
6220 2 -17.2987 -8.24141 -23.3611 0 0 0 22.4587 17
2032 1 -10.7919 -7.83434 -23.9174 0 0 0 17.8756 19
7796 2 -16.5292 -7.06253 -23.8415 0 0 0 17.8326 15
292 1 -7.30784 -6.86131 -23.3823 0 0 0 21.068 17
7409 2 -18.0741 -6.12033 -23.2374 0 0 0 12.8188 10
3530 1 -8.36405 -6.19691 -23.0762 0 0 0 9.94282 12
5942 2 -26.4973 -4.91915 -23.835 0 0 0 29.4374 14
5105 2 -17.6544 -4.26112 -23.7781 0 0 0 22.8951 16
1726 1 -3.09321 -3.73588 -23.6532 0 0 0 10.6694 11
1626 1 -28.3353 -2.83737 -23.0986 0 0 0 18.5912 13
2511 1 -24.3064 -3.07484 -23.5617 0 0 0 23.9242 16
9699 2 -21.456 -2.94773 -23.2945 0 0 0 21.5779 19
6806 2 -20.8139 -0.36436 -23.4006 0 0 0 15.126 14
8290 2 -11.5938 -0.0275884 -23.7073 0 0 0 24.6885 14
1101 1 -3.87717 -28.5366 -22.3601 0 0 0 20.3363 11
2448 1 -13.5327 -27.8016 -22.3005 0 0 0 13.3466 16
4610 1 -18.8727 -26.4607 -22.6853 0 0 0 18.5169 11
5107 2 -11.9415 -25.9617 -22.4501 0 0 0 19.0407 16
9831 2 -23.5183 -24.7312 -22.6268 0 0 0 32.0139 19
884 1 -2.83149 -24.5067 -22.4201 0 0 0 25.0366 16
3034 1 -13.7329 -23.1935 -22.5593 0 0 0 15.772 14
2613 1 -4.49972 -22.8858 -22.4669 0 0 0 21.4466 17
3117 1 -1.79973 -22.5192 -22.2152 0 0 0 14.9294 11
4474 1 -8.5329 -20.8008 -22.5975 0 0 0 20.3107 17
7432 2 -1.66622 -18.911 -22.2126 0 0 0 20.2014 15
9237 2 -22.0497 -18.5564 -22.8494 0 0 0 20.329 19
8247 2 -11.961 -17.4881 -22.2708 0 0 0 21.1109 17
6929 2 -4.43665 -17.2066 -22.214 0 0 0 14.9985 17
2845 1 -1.96943 -16.5774 -22.872 0 0 0 14.2602 16
5905 2 -9.63416 -15.3284 -22.24 0 0 0 21.7507 16
8591 2 -16.8897 -13.9209 -22.8024 0 0 0 22.2644 19
5084 2 -7.7359 -11.8742 -22.351 0 0 0 17.3615 17
688 1 -3.35316 -11.6939 -22.3888 0 0 0 15.6939 14
4118 1 -0.612183 -11.7055 -22.8393 0 0 0 21.7883 15
6393 2 -9.54666 -9.08554 -22.8203 0 0 0 13.8947 19
4633 1 -5.03113 -8.88381 -22.7882 0 0 0 27.9569 20
6032 2 -11.9683 -8.25898 -22.402 0 0 0 20.283 16
7327 2 -2.73121 -6.14261 -22.6622 0 0 0 18.1024 13
1454 1 -23.686 -5.77493 -22.724 0 0 0 20.4638 13
5055 2 -12.3535 -4.81141 -22.2909 0 0 0 31.8673 23
882 1 -1.17997 -4.9072 -22.4049 0 0 0 20.4499 10
2958 1 -0.520566 -2.98471 -22.429 0 0 0 13.6201 13
3728 1 -11.5948 -1.39977 -22.6278 0 0 0 14.3002 11
8410 2 -8.85432 -1.55009 -22.9335 0 0 0 12.0272 11
1992 1 -2.234 -1.38748 -22.7436 0 0 0 13.1095 15
2473 1 -28.3647 -28.4502 -21.3941 0 0 0 32.3807 11
541 1 -16.5678 -28.858 -22.1108 0 0 0 24.1246 18
7049 2 -27.8087 -27.7033 -22.2017 0 0 0 24.199 13
6231 2 -10.0676 -27.5767 -21.4506 0 0 0 24.3668 20
2151 1 -2.33302 -26.512 -21.4896 0 0 0 27.4804 16
5866 2 -17.2579 -25.8348 -21.7193 0 0 0 15.1059 16
5670 2 -14.8666 -25.003 -21.3869 0 0 0 21.2793 17
2388 1 -0.451863 -22.4249 -21.831 0 0 0 32.3327 16
500 1 -23.0946 -20.7256 -22.0989 0 0 0 18.1482 15
6627 2 -10.8885 -20.5243 -21.5872 0 0 0 24.2598 17
222 1 -28.2402 -19.7032 -22.0753 0 0 0 19.5672 14
8698 2 -26.5003 -19.7826 -22.1471 0 0 0 23.9098 18
7351 2 -6.13296 -19.7552 -21.5999 0 0 0 21.3897 13
1371 1 -20.2236 -17.5388 -21.4523 0 0 0 16.3179 18
431 1 -14.7276 -17.7209 -21.6249 0 0 0 21.7439 17
9714 2 -24.7743 -15.7621 -22.057 0 0 0 16.7627 11
9160 2 -21.2913 -15.3896 -21.9087 0 0 0 15.232 13
8139 2 -11.5603 -14.385 -21.7959 0 0 0 19.7214 20
6827 2 -23.6973 -12.9144 -22.1358 0 0 0 37.1441 25
5360 2 -9.96119 -10.3447 -21.8028 0 0 0 10.438 15
9967 2 -3.80635 -10.3335 -21.6229 0 0 0 17.4975 19
4103 1 -25.3278 -8.44309 -21.8572 0 0 0 25.421 14
8804 2 -23.4122 -6.7078 -21.6069 0 0 0 22.8194 14
9 1 -19.944 -5.75427 -21.506 0 0 0 30.2815 19
9211 2 -9.15142 -5.12058 -22.1287 0 0 0 19.7808 17
2204 1 -5.93415 -3.58661 -22.1783 0 0 0 18.6288 16
8304 2 -8.20685 -1.9732 -21.6345 0 0 0 14.8401 11
1118 1 -23.3617 -1.08713 -22.0105 0 0 0 13.4661 15
4623 1 -22.4052 -1.51541 -21.8919 0 0 0 12.7835 12
8252 2 -9.83203 -1.55612 -21.4961 0 0 0 32.1587 21
6118 2 -6.47984 -1.2052 -21.9745 0 0 0 22.0563 17
6798 2 -4.8065 -1.2774 -22.2075 0 0 0 13.7931 13
3583 1 -12.6949 -0.361418 -21.5144 0 0 0 27.7201 13
9373 2 -1.7787 -0.321857 -21.8693 0 0 0 15.7614 15
392 1 -21.5134 -28.2811 -20.6256 0 0 0 27.5269 17
4758 1 -9.48513 -28.7652 -20.8002 0 0 0 14.1777 10
4542 1 -6.23903 -28.7394 -21.0513 0 0 0 26.3151 14
5707 2 -13.9324 -28.1166 -20.6373 0 0 0 8.63557 12
5777 2 -20.1165 -26.9783 -21.3135 0 0 0 20.2265 15
4330 1 -16.681 -26.8838 -21.3326 0 0 0 13.6159 18
1084 1 -13.1044 -26.8249 -21.1624 0 0 0 7.93401 11
2434 1 -4.04935 -27.1264 -21.3442 0 0 0 14.3014 11
8652 2 -18.8605 -25.9181 -20.9862 0 0 0 9.80677 13
8786 2 -11.8192 -24.7566 -20.8355 0 0 0 27.0204 17
6817 2 -22.5262 -22.5551 -20.7461 0 0 0 21.5183 16
1518 1 -8.50548 -22.7805 -21.3107 0 0 0 38.6453 19
109 1 -0.0509058 -21.9614 -20.9378 0 0 0 30.4453 19
8278 2 -24.6957 -21.202 -20.689 0 0 0 18.4967 12
9599 2 -20.8361 -20.6708 -20.8752 0 0 0 17.2123 13
6571 2 -3.62671 -20.9806 -21.2699 0 0 0 21.2211 16
6748 2 -25.3105 -19.9853 -20.9608 0 0 0 12.422 16
1111 1 -7.23789 -20.3199 -20.7416 0 0 0 20.811 14
7389 2 -18.6019 -18.0726 -21.0472 0 0 0 12.0577 13
2028 1 -3.55744 -17.7049 -21.1307 0 0 0 11.5031 12
8239 2 -26.1826 -17.0428 -20.7619 0 0 0 18.718 16
5524 2 -23.9137 -16.2689 -20.836 0 0 0 9.57117 12
5847 2 -17.3009 -16.811 -20.8006 0 0 0 18.2715 15
3576 1 -9.38533 -15.8244 -20.8707 0 0 0 28.5495 21
7019 2 -3.63057 -14.948 -21.2095 0 0 0 13.7668 14
1401 1 -19.6363 -14.4089 -20.9791 0 0 0 21.4679 16
2924 1 -12.1195 -14.0734 -20.6916 0 0 0 9.2994 10
5916 2 -7.3618 -13.8038 -20.7985 0 0 0 20.4063 17
949 1 -27.8637 -13.4448 -20.9977 0 0 0 34.0123 22
3833 1 -4.38054 -13.5586 -20.652 0 0 0 14.1366 13
1327 1 -13.6791 -12.4581 -20.9954 0 0 0 19.077 16
603 1 -2.30568 -12.4272 -21.3137 0 0 0 18.5952 14
5668 2 -10.8582 -9.95178 -20.6925 0 0 0 11.9073 14
8042 2 -26.3478 -8.11307 -21.1724 0 0 0 27.4883 19
3131 1 -16.9424 -7.26876 -21.1854 0 0 0 22.1251 16
8445 2 -1.48402 -7.10493 -20.5243 0 0 0 30.6251 14
9559 2 -17.439 -5.02069 -21.116 0 0 0 28.3475 16
4387 1 -6.63327 -3.46742 -20.5601 0 0 0 8.75567 8
9260 2 -4.7907 -3.64341 -20.5209 0 0 0 29.0134 21
8720 2 -14.9085 -2.74752 -21.323 0 0 0 32.518 19
3070 1 -3.15632 -0.872189 -20.6175 0 0 0 21.7643 15
6723 2 -23.3882 -0.0799813 -21.3081 0 0 0 16.5931 12
424 1 -22.4117 -29.043 -20.0458 0 0 0 25.5065 13
1662 1 -9.54535 -28.9946 -19.6918 0 0 0 20.5353 13
5422 2 -27.4567 -27.925 -19.6539 0 0 0 24.5062 17
5507 2 -12.0926 -27.7966 -20.4932 0 0 0 9.64144 16
9319 2 -0.426971 -28.1828 -20.1084 0 0 0 49.8151 17
8867 2 -5.09476 -26.8571 -19.9189 0 0 0 27.4873 18
8492 2 -27.8096 -25.0298 -20.2994 0 0 0 45.0911 26
5940 2 -17.7327 -25.3538 -20.285 0 0 0 8.53313 11
2262 1 -19.4141 -24.1112 -19.7915 0 0 0 17.9445 16
5341 2 -17.8831 -23.4193 -19.6596 0 0 0 25.0359 21
9728 2 -3.27005 -23.5008 -20.1234 0 0 0 16.2684 13
3846 1 -21.8341 -22.305 -19.7078 0 0 0 24.1352 17
9615 2 -13.4294 -22.889 -19.6776 0 0 0 18.8195 13
8875 2 -5.66816 -22.288 -19.6547 0 0 0 17.4102 14
3486 1 -23.6618 -21.4425 -20.1511 0 0 0 10.0294 11
794 1 -12.7456 -21.7591 -19.832 0 0 0 19.7074 12
6662 2 -22.3923 -20.2776 -19.6948 0 0 0 14.4654 13
5449 2 -16.357 -19.7664 -20.0989 0 0 0 20.8626 16
5551 2 -29.0339 -19.4412 -19.7783 0 0 0 19.6944 16
9889 2 -19.0284 -19.4132 -20.3192 0 0 0 15.6406 16
2196 1 -27.6476 -18.4813 -20.1889 0 0 0 17.2578 13
1382 1 -20.6187 -18.3406 -19.9664 0 0 0 17.1304 15
1127 1 -25.61 -17.0806 -19.6989 0 0 0 12.2666 11
6094 2 -22.8907 -15.6481 -20.0387 0 0 0 13.833 11
2215 1 -5.87911 -15.8091 -20.0738 0 0 0 24.3415 18
8159 2 -13.1932 -15.0454 -20.3337 0 0 0 17.3243 15
782 1 -4.33591 -15.3143 -20.1359 0 0 0 12.9794 10
722 1 -17.2923 -13.98 -19.6643 0 0 0 20.7951 16
5237 2 -25.5846 -13.538 -19.7711 0 0 0 19.7045 13
6255 2 -18.9841 -13.0319 -20.0136 0 0 0 20.8671 15
9061 2 -6.0205 -12.1158 -20.4116 0 0 0 12.8793 11
3178 1 -25.1027 -10.3391 -20.3093 0 0 0 21.0241 12
6890 2 -16.0467 -10.2886 -20.3102 0 0 0 28.823 17
3624 1 -9.67778 -10.5249 -20.1258 0 0 0 9.07634 11
3110 1 -7.49051 -10.3877 -20.4582 0 0 0 16.3934 16
2297 1 -4.99297 -11.0244 -19.7423 0 0 0 18.4276 16
4216 1 -21.7938 -8.77545 -20.2943 0 0 0 31.2803 15
3613 1 -19.3035 -9.15591 -19.9635 0 0 0 41.6671 22
4417 1 -10.3261 -9.07904 -19.9711 0 0 0 14.7781 15
7550 2 -3.35328 -7.83377 -20.4493 0 0 0 21.1661 17
5658 2 -8.51333 -5.29759 -19.9786 0 0 0 27.091 18
5754 2 -28.3046 -3.503 -20.4566 0 0 0 34.7049 20
9207 2 -22.2297 -3.96905 -20.1397 0 0 0 27.1113 15
4148 1 -18.8291 -1.16196 -20.1575 0 0 0 20.6373 19
7445 2 -14.7051 -28.7948 -19.5541 0 0 0 16.7138 15
6873 2 -15.8642 -28.1303 -18.8488 0 0 0 15.2792 13
2842 1 -13.1582 -27.4173 -18.9063 0 0 0 11.9665 12
6573 2 -15.4475 -26.6841 -18.9601 0 0 0 14.2975 15
3346 1 -18.422 -25.8912 -18.912 0 0 0 7.87157 12
8245 2 -13.8671 -24.4845 -18.9641 0 0 0 22.069 15
7488 2 -5.5407 -24.6136 -18.9515 0 0 0 34.7927 19
558 1 -14.3756 -19.8331 -19.4785 0 0 0 27.1624 17
3879 1 -25.5368 -19.1971 -19.1838 0 0 0 11.3458 15
8465 2 -17.434 -18.9934 -19.506 0 0 0 11.0553 13
8700 2 -11.7291 -19.5838 -19.191 0 0 0 32.6016 17
1302 1 -4.26996 -18.7996 -19.334 0 0 0 21.4141 18
2226 1 -2.63743 -17.2037 -19.3875 0 0 0 33.5337 18
5076 2 -23.0924 -16.9415 -19.5288 0 0 0 19.0896 15
3992 1 -18.009 -17.0435 -19.147 0 0 0 16.7876 14
7856 2 -14.0008 -15.5016 -18.9876 0 0 0 13.8571 14
1113 1 -24.2751 -15.3063 -19.3619 0 0 0 16.1595 14
2368 1 -14.4923 -13.2536 -19.0171 0 0 0 11.9564 13
219 1 -17.891 -12.3659 -18.8378 0 0 0 24.5128 17
8103 2 -13.5194 -11.9781 -19.4513 0 0 0 12.7281 13
8535 2 -11.5142 -12.6826 -19.298 0 0 0 14.7519 14
7643 2 -23.7746 -11.5429 -19.1461 0 0 0 17.4396 13
1799 1 -2.24408 -11.5242 -18.9463 0 0 0 19.6955 14
4645 1 -0.50848 -11.1652 -18.7996 0 0 0 21.9974 15
7849 2 -9.34241 -9.419 -19.2745 0 0 0 16.883 14
910 1 -25.3718 -9.38605 -19.0897 0 0 0 15.7 14
881 1 -27.4607 -7.71569 -19.1203 0 0 0 30.3373 15
9997 2 -15.7592 -7.73409 -19.255 0 0 0 16.5012 11
8968 2 -14.5135 -8.40867 -19.4237 0 0 0 18.7723 17
819 1 -6.79591 -8.54243 -19.3586 0 0 0 19.7115 17
9802 2 -4.55928 -7.68124 -18.8343 0 0 0 15.8966 10
5775 2 -21.9086 -5.68963 -18.9294 0 0 0 14.7636 10
6379 2 -7.03038 -5.09304 -19.5963 0 0 0 19.5676 18
6121 2 -6.56632 -2.9755 -19.2018 0 0 0 17.0445 15
9909 2 -15.673 -2.47603 -19.4031 0 0 0 26.3457 19
2915 1 -18.5491 -1.18109 -19.0917 0 0 0 20.8665 18
3764 1 -25.0897 -0.548104 -19.0382 0 0 0 28.9573 15
6572 2 -18.8883 -28.8557 -18.2566 0 0 0 16.2388 13
2463 1 -8.06993 -28.0715 -18.4897 0 0 0 32.2585 13
6404 2 -20.0581 -26.5565 -18.7659 0 0 0 24.7048 19
9572 2 -19.1475 -24.724 -18.7253 0 0 0 13.4866 14
8147 2 -2.33149 -23.711 -18.0102 0 0 0 31.5178 18
4735 1 -3.14501 -23.0577 -18.7644 0 0 0 13.0768 11
8850 2 -5.55118 -22.1756 -17.9733 0 0 0 10.6684 9
9439 2 -25.0948 -20.9689 -18.0747 0 0 0 16.7419 15
8632 2 -26.4484 -19.1473 -18.1704 0 0 0 15.1019 12
7347 2 -6.69176 -19.2908 -18.2838 0 0 0 21.6564 16
9692 2 -27.7865 -14.972 -18.03 0 0 0 38.2765 21
6170 2 -6.41563 -13.8188 -18.1084 0 0 0 25.5326 18
4062 1 -1.54906 -14.2506 -17.9567 0 0 0 37.5813 15
8901 2 -23.0602 -12.6048 -18.2635 0 0 0 12.4486 9
324 1 -21.297 -12.0149 -18.3233 0 0 0 23.7226 17
7106 2 -9.07073 -12.4287 -18.6171 0 0 0 18.7192 17
105 1 -0.233678 -12.138 -18.5648 0 0 0 24.0295 12
7576 2 -26.9899 -10.14 -18.5281 0 0 0 21.2262 15
8043 2 -12.9413 -9.01079 -18.037 0 0 0 15.4273 15
6490 2 -14.6632 -7.10054 -18.4174 0 0 0 13.6036 16
7738 2 -20.8679 -5.12797 -18.0055 0 0 0 24.3195 20
6630 2 -12.1931 -4.42696 -18.251 0 0 0 27.5743 16
7454 2 -21.7183 -2.72121 -18.2036 0 0 0 19.3667 18
1569 1 -27.568 -1.39243 -18.2378 0 0 0 20.826 10
9747 2 -25.7086 -1.68841 -18.2686 0 0 0 22.4947 13
2362 1 -12.6088 -0.839771 -18.5821 0 0 0 32.6872 12
3031 1 -28.6139 -28.6365 -17.8976 0 0 0 33.4494 10
6689 2 -12.4132 -28.8227 -17.7194 0 0 0 8.97945 13
615 1 -27.9677 -28.0279 -17.1843 0 0 0 15.4399 13
8122 2 -14.1511 -28.0838 -17.6312 0 0 0 13.3519 16
8855 2 -18.0874 -27.0842 -17.5347 0 0 0 23.6595 18
5439 2 -9.73897 -27.3314 -17.1564 0 0 0 28.6491 20
9277 2 -0.949614 -27.2909 -17.3612 0 0 0 38.6576 15
5375 2 -29.0383 -25.9991 -17.2089 0 0 0 18.4822 17
4866 1 -17.3993 -23.9896 -17.7517 0 0 0 15.933 12
3430 1 -17.9723 -23.1556 -17.1684 0 0 0 20.4631 19
5270 2 -9.19186 -22.1098 -17.6677 0 0 0 42.1071 23
6796 2 -4.35874 -20.8621 -17.215 0 0 0 13.248 15
1275 1 -5.99509 -20.1152 -17.6199 0 0 0 10.6662 13
7023 2 -21.8265 -19.5257 -17.2007 0 0 0 30.8962 23
5440 2 -17.8397 -19.095 -17.229 0 0 0 14.4735 16
8851 2 -17.799 -17.614 -17.3588 0 0 0 14.8134 13
5951 2 -10.2054 -17.0008 -17.5843 0 0 0 23.8195 17
8946 2 -14.5785 -16.1821 -17.6483 0 0 0 13.1601 17
568 1 -13.6873 -15.3989 -17.2072 0 0 0 8.07313 11
4570 1 -9.00986 -15.7406 -17.4176 0 0 0 15.7848 13
414 1 -12.116 -14.6412 -17.8013 0 0 0 13.0736 16
9468 2 -10.0646 -14.6141 -17.8197 0 0 0 13.4225 14
7068 2 -7.32798 -14.8439 -17.2065 0 0 0 21.4443 15
7820 2 -14.6194 -14.045 -17.8381 0 0 0 12.4375 11
336 1 -28.7062 -13.4374 -17.9136 0 0 0 23.3866 14
8979 2 -24.9318 -12.871 -17.3332 0 0 0 28.9778 19
6765 2 -0.741891 -12.7872 -17.5578 0 0 0 11.4211 7
4403 1 -11.7336 -10.9724 -17.5963 0 0 0 18.8921 16
9989 2 -6.20264 -9.02679 -17.9174 0 0 0 22.0951 17
4626 1 -3.44242 -9.17881 -17.4042 0 0 0 23.3531 15
3309 1 -23.4332 -8.10697 -17.6203 0 0 0 22.0625 15
206 1 -22.3417 -7.01978 -17.4276 0 0 0 16.7626 13
6869 2 -11.0203 -7.29003 -17.5502 0 0 0 20.6783 17
6180 2 -5.50742 -6.95708 -17.7151 0 0 0 16.5236 14
7030 2 -1.45462 -6.20997 -17.2237 0 0 0 56.5045 20
8120 2 -23.8329 -5.36663 -17.2132 0 0 0 36.5099 24
5035 2 -13.2152 -5.45359 -17.8529 0 0 0 16.9754 18
2930 1 -16.3387 -5.00682 -17.6624 0 0 0 21.6476 16
8584 2 -14.8328 -3.8175 -17.2502 0 0 0 19.5705 14
4494 1 -7.13175 -2.43971 -17.7419 0 0 0 27.1769 19
9919 2 -24.0765 -1.05683 -17.4385 0 0 0 19.2799 16
8038 2 -6.50016 -0.68735 -17.2937 0 0 0 26.6767 16
8409 2 -21.6684 -28.2594 -16.2922 0 0 0 25.133 12
529 1 -24.3522 -28.1855 -16.6928 0 0 0 23.1558 16
3632 1 -13.1837 -25.9838 -16.3593 0 0 0 14.1487 15
3826 1 -27.154 -23.2341 -16.4477 0 0 0 9.83376 11
8758 2 -25.8306 -23.1767 -16.746 0 0 0 16.8793 18
5085 2 -28.6486 -22.1209 -16.5002 0 0 0 6.41698 10
2643 1 -27.5827 -21.5582 -16.6875 0 0 0 12.1529 14
9723 2 -16.1328 -21.7548 -16.6364 0 0 0 40.4762 20
5797 2 -5.89685 -22.1187 -16.5087 0 0 0 28.6357 15
3809 1 -3.63878 -21.6761 -16.7301 0 0 0 23.5866 17
8399 2 -24.7578 -20.7181 -16.4405 0 0 0 16.4776 14
3315 1 -28.7364 -19.5073 -16.3924 0 0 0 19.1748 17
5391 2 -18.9998 -19.5623 -16.5875 0 0 0 17.2461 15
9475 2 -8.96501 -19.0164 -16.2678 0 0 0 17.3615 13
352 1 -4.69704 -18.3684 -16.2741 0 0 0 29.9048 20
1821 1 -25.2336 -17.7648 -16.4182 0 0 0 25.2717 16
5998 2 -14.1306 -16.8145 -16.4944 0 0 0 18.8415 14
8723 2 -20.6469 -14.6461 -17.0431 0 0 0 31.7551 22
1336 1 -11.7395 -15.2594 -16.3061 0 0 0 15.4783 14
5463 2 -8.37583 -13.6737 -16.4799 0 0 0 16.6517 15
3822 1 -22.7238 -12.2729 -16.4788 0 0 0 17.0031 10
8327 2 -8.38021 -12.1608 -16.3061 0 0 0 16.932 12
8653 2 -14.3566 -11.5941 -17.0629 0 0 0 12.5965 15
2595 1 -13.3211 -10.5786 -16.673 0 0 0 9.60127 12
5291 2 -15.7015 -10.0257 -16.7266 0 0 0 17.2064 16
2817 1 -28.3451 -8.81564 -16.4901 0 0 0 21.4814 12
4093 1 -14.7947 -7.21282 -16.247 0 0 0 12.3228 13
6829 2 -10.5352 -5.80178 -16.6771 0 0 0 14.1115 11
3181 1 -17.1616 -3.89145 -16.4203 0 0 0 11.8287 10
8780 2 -21.6248 -2.12376 -16.928 0 0 0 10.8029 15
6478 2 -16.2348 -0.612257 -16.3343 0 0 0 26.4951 13
5537 2 -12.0386 -28.7 -16.1628 0 0 0 8.82311 10
4275 1 -8.52088 -28.893 -16.1408 0 0 0 25.1073 12
4215 1 -0.285088 -28.7469 -16.1786 0 0 0 23.8452 12
7159 2 -26.934 -26.5688 -15.4778 0 0 0 7.95557 11
2575 1 -25.9069 -26.7415 -16.1466 0 0 0 12.9504 12
5627 2 -24.8488 -25.8358 -15.4392 0 0 0 14.5944 13
2003 1 -26.544 -25.4633 -15.7573 0 0 0 7.73192 11
2899 1 -14.4465 -25.5343 -15.9196 0 0 0 19.7526 14
3244 1 -13.0472 -25.1628 -15.6082 0 0 0 23.0885 16
5023 2 -24.7924 -24.297 -16.0704 0 0 0 16.6169 14
3787 1 -23.4573 -23.0749 -15.6162 0 0 0 21.5815 17
1443 1 -1.17937 -22.5593 -15.4948 0 0 0 22.0907 15
929 1 -18.28 -20.7836 -15.5133 0 0 0 16.0964 11
3296 1 -11.6916 -21.2422 -15.5876 0 0 0 40.3294 20
2500 1 -7.50948 -18.3094 -15.6281 0 0 0 12.2301 10
1749 1 -15.8707 -16.8191 -15.7658 0 0 0 22.4318 17
8732 2 -17.9542 -15.1034 -15.8781 0 0 0 21.106 16